2
Lattice="2.7126339538104296 2.7126339538104296 0.0 2.7126339538104296 0.0 2.7126339538104296 0.0 2.7126339538104296 2.7126339538104296" Properties=species:S:1:pos:R:3:momenta:R:3:last_op__md_forces:R:3:REF_forces:R:3 _ConfigSet_loc=" / 0" MD_pressure_GPa=0.0 MD_temperature_K=300.0 MD_time_fs=40.0 MD_step=20 MD_current_temperature=29.305693268180605 last_op__md_energy=-2.902030840779364 last_op__md_stress="0.08218912873266485 0.08301366088526994 0.08494913690862244 0.0020313469140061323 0.007344051188275583 0.014649943224380785" config_type=MD vasp_rundir=md_step_20.step_010.VASP_runs/run_VASP_9fny3s1i REF_energy=-13.64682237 REF_stress="0.17193668449140811 0.18180244768180306 0.19791816840496992 0.002605502761559208 0.009009196572093684 0.01758816701240433" REF_converged=T pbc="T T T"
Ni      -0.03331093      -0.05065696      -0.07768830      -0.56449628      -0.31102225      -0.17110373       0.09503959       0.38278524       0.75083669       0.28943130       0.60588974       0.96231998
Ni       1.38962791       1.40697393       1.43400528       0.56449628       0.31102225       0.17110373      -0.09503959      -0.38278524      -0.75083669      -0.28943130      -0.60588974      -0.96231998
2
Lattice="2.7132278377181245 2.7132278377181245 0.0 2.7132278377181245 0.0 2.7132278377181245 0.0 2.7132278377181245 2.7132278377181245" Properties=species:S:1:pos:R:3:momenta:R:3:last_op__md_forces:R:3:REF_forces:R:3 _ConfigSet_loc=" / 1" MD_pressure_GPa=0.0 MD_temperature_K=300.0 MD_time_fs=30.0 MD_step=15 MD_current_temperature=67.56386501742962 last_op__md_energy=-2.917910867321325 last_op__md_stress="0.08248071523620522 0.08318041191163798 0.08478892306470631 0.0010650296906357258 0.006644041891521926 0.01335958705896574" config_type=MD vasp_rundir=md_step_20.step_010.VASP_runs/run_VASP_nciglsrx REF_energy=-13.66898992 REF_stress="0.1860456725558531 0.18668759439933028 0.1824036408321057 0.0017236499360607821 0.008374311000306915 0.015805537417813258" REF_converged=T pbc="T T T"
Ni      -0.02467155      -0.04344486      -0.06980940      -0.46042580      -0.53089266      -0.72892761       0.05412676       0.35560536       0.69622720       0.18843218       0.53318332       0.91729588
Ni       1.38128547       1.40005878       1.42642332       0.46042580       0.53089266       0.72892761      -0.05412676      -0.35560536      -0.69622720      -0.18843218      -0.53318332      -0.91729588
