2
Lattice="2.7145668831183563 2.7145668831183563 0.0 2.7145668831183563 0.0 2.7145668831183563 0.0 2.7145668831183563 2.7145668831183563" Properties=species:S:1:pos:R:3:momenta:R:3:last_op__md_forces:R:3:REF_forces:R:3 _ConfigSet_loc=" / 0" MD_pressure_GPa=0.0 MD_temperature_K=317.77777777777777 MD_time_fs=5.5 MD_step=5 MD_current_temperature=285.86451347790984 last_op__md_energy=-8.788595016335753 last_op__md_stress="0.07793531136616406 0.07800988175739328 0.07786844971952374 -0.004029822473260727 0.005554824164803792 -0.001835433106403004" config_type=MD vasp_rundir=md_step_00.step_010.VASP_runs/run_VASP__1cmbm7i REF_energy=-13.74626176 REF_stress="0.19092884686911543 0.1975489113690605 0.18662952768633986 -0.002321822532987994 0.0031339006728814205 -0.0009312642630217564" REF_converged=T pbc="T T T"
Ni       0.01109259      -0.01480037       0.00612803       1.18570595      -1.58094268       0.65746622      -0.10829373       0.15215203      -0.04269172      -0.14240644       0.18797349      -0.07429554
Ni       1.34619085       1.37208381       1.35115541      -1.18570595       1.58094268      -0.65746622       0.10829373      -0.15215203       0.04269172       0.14240644      -0.18797349       0.07429554
2
Lattice="2.71372332902789 2.71372332902789 0.0 2.71372332902789 0.0 2.71372332902789 0.0 2.71372332902789 2.71372332902789" Properties=species:S:1:pos:R:3:momenta:R:3:last_op__md_forces:R:3:REF_forces:R:3 _ConfigSet_loc=" / 1" MD_pressure_GPa=0.0 MD_temperature_K=362.22222222222223 MD_time_fs=16.5 MD_step=15 MD_current_temperature=207.2805013132875 last_op__md_energy=-8.768037978407959 last_op__md_stress="0.07383931999345351 0.07445159847422092 0.0732684058875579 -0.010255065543708688 0.014953738476822456 -0.002898138778364903" config_type=MD vasp_rundir=md_step_00.step_010.VASP_runs/run_VASP_hhed5_ob REF_energy=-13.71929381 REF_stress="0.18889670267369316 0.1830634691283594 0.19492581459843009 -0.0064267629899995606 0.008835175670539907 -0.002077237981626651" REF_converged=T pbc="T T T"
Ni       0.03149570      -0.04179585       0.01791896       1.00925150      -1.31408306       0.63225759      -0.25343146       0.39267379      -0.01418336      -0.39896693       0.55223290      -0.17500223
Ni       1.32536596       1.39865751       1.33894270      -1.00925150       1.31408306      -0.63225759       0.25343146      -0.39267379       0.01418336       0.39896693      -0.55223290       0.17500223
2
Lattice="2.715 2.715 0.0 2.71372332902789 0.0 2.71372332902789 0.0 2.71372332902789 2.71372332902789" Properties=species:S:1:pos:R:3:momenta:R:3:last_op__md_forces:R:3:REF_forces:R:3 _ConfigSet_loc=" / 1" MD_pressure_GPa=0.0 MD_temperature_K=362.22222222222223 MD_time_fs=16.5 MD_step=15 MD_current_temperature=207.2805013132875 last_op__md_energy=-8.768037978407959 last_op__md_stress="0.07383931999345351 0.07445159847422092 0.0732684058875579 -0.010255065543708688 0.014953738476822456 -0.002898138778364903" config_type=MD vasp_rundir=md_step_00.step_010.VASP_runs/run_VASP_hhed5_ob REF_energy=-13.71929381 REF_stress="0.18889670267369316 0.1830634691283594 0.19492581459843009 -0.0064267629899995606 0.008835175670539907 -0.002077237981626651" REF_converged=T pbc="T T T"
Ni       0.03149570      -0.04179585       0.01791896       1.00925150      -1.31408306       0.63225759      -0.25343146       0.39267379      -0.01418336      -0.39896693       0.55223290      -0.17500223
Ni       1.22536596       1.39865751       1.33894270      -1.00925150       1.31408306      -0.63225759       0.25343146      -0.39267379       0.01418336       0.39896693      -0.55223290       0.17500223
