2
Lattice="2.7135707905655417 2.7135707905655417 0.0 2.7135707905655417 0.0 2.7135707905655417 0.0 2.7135707905655417 2.7135707905655417" Properties=species:S:1:pos:R:3:momenta:R:3:last_op__md_forces:R:3:REF_forces:R:3 _ConfigSet_loc=" / 0" MD_pressure_GPa=0.0 MD_temperature_K=442.22222222222223 MD_time_fs=16.5 MD_step=15 MD_current_temperature=237.43541476632416 last_op__md_energy=-2.1281052415901462 last_op__md_stress="0.060921098678689174 0.06123788370098406 0.06202127534337429 0.001751501279333761 0.005058204390896931 0.009407621221492435" config_type=MD vasp_rundir=md_step_20.step_010.VASP_runs/run_VASP_45qy04kh REF_energy=-13.71096356 REF_stress="0.1921817349052657 0.18989227326141248 0.18246502251669858 0.0012863322952315545 0.006224462590785048 0.011214481510177333" REF_converged=T pbc="T T T"
Ni      -0.01583597      -0.03081029      -0.05072344      -0.52436938      -0.95891741      -1.55184395       0.09062812       0.30384181       0.55960562       0.13440860       0.38879489       0.68060520
Ni       1.37262136       1.38759568       1.40750883       0.52436938       0.95891741       1.55184395      -0.09062812      -0.30384181      -0.55960562      -0.13440860      -0.38879489      -0.68060520
2
Lattice="2.713098884966871 2.713098884966871 0.0 2.713098884966871 0.0 2.713098884966871 0.0 2.713098884966871 2.713098884966871" Properties=species:S:1:pos:R:3:momenta:R:3:last_op__md_forces:R:3:REF_forces:R:3 _ConfigSet_loc=" / 1" MD_pressure_GPa=0.0 MD_temperature_K=460.0 MD_time_fs=22.0 MD_step=20 MD_current_temperature=166.3041143211126 last_op__md_energy=-2.1066386502260834 last_op__md_stress="0.06024149507371105 0.06072782093326484 0.061966533745372414 0.0022669837777586094 0.00622749108484907 0.011777536599412204" config_type=MD vasp_rundir=md_step_20.step_010.VASP_runs/run_VASP_gw8h1r8j REF_energy=-13.68654325 REF_stress="0.18822272421465108 0.18785335534962264 0.1817305015314826 0.0013133153003751531 0.007780954564032546 0.01451067176251234" REF_converged=T pbc="T T T"
Ni      -0.02053157      -0.03900969      -0.06379663      -0.49375256      -0.81400258      -1.27161674       0.09955929       0.36514564       0.68866666       0.15477113       0.48706812       0.84815066
Ni       1.37708101       1.39555913       1.42034607       0.49375256       0.81400258       1.27161674      -0.09955929      -0.36514564      -0.68866666      -0.15477113      -0.48706812      -0.84815066
