2
Lattice="2.713319644797589 2.713319644797589 0.0 2.713319644797589 0.0 2.713319644797589 0.0 2.713319644797589 2.713319644797589" Properties=species:S:1:pos:R:3:momenta:R:3:last_op__md_forces:R:3:REF_forces:R:3 _ConfigSet_loc=" / 0" MD_pressure_GPa=0.0 MD_temperature_K=380.0 MD_time_fs=22.0 MD_step=20 MD_current_temperature=163.35927427643153 last_op__md_energy=-8.754713628102067 last_op__md_stress="0.07123666937713277 0.07222988416776925 0.07029415615692435 -0.012491920499861156 0.01859869513977189 -0.0029160810392725254" config_type=MD vasp_rundir=md_step_00.step_010.VASP_runs/run_VASP_v6kythhi REF_energy=-13.69871239 REF_stress="0.18448090424788202 0.1796798636571392 0.195394989369951 -0.008117601593453486 0.01151131219277869 -0.0028292918777809697" REF_converged=T pbc="T T T"
Ni       0.04027873      -0.05304895       0.02383956       0.89219365      -1.11880522       0.65649297      -0.29563246       0.47876124       0.02464864      -0.50649892       0.69788154      -0.21366095
Ni       1.31638110       1.40970877       1.33282026      -0.89219365       1.11880522      -0.65649297       0.29563246      -0.47876124      -0.02464864       0.50649892      -0.69788154       0.21366095
2
Lattice="2.714139892393478 2.714139892393478 0.0 2.714139892393478 0.0 2.714139892393478 0.0 2.714139892393478 2.714139892393478" Properties=species:S:1:pos:R:3:momenta:R:3:last_op__md_forces:R:3:REF_forces:R:3 _ConfigSet_loc=" / 1" MD_pressure_GPa=0.0 MD_temperature_K=335.55555555555554 MD_time_fs=11.0 MD_step=10 MD_current_temperature=251.26697304746122 last_op__md_energy=-8.780120026404187 last_op__md_stress="0.07619191383488837 0.07648079254827254 0.07592829599283382 -0.007436812155768829 0.010566658922702324 -0.0026833261704222867" config_type=MD vasp_rundir=md_step_00.step_010.VASP_runs/run_VASP_vevqrrt9 REF_energy=-13.73610962 REF_stress="0.19127458686607246 0.18526359562142977 0.19434017732984263 -0.004414754396096603 0.005985283236258792 -0.0014778459186464245" REF_converged=T pbc="T T T"
Ni       0.02170222      -0.02891325       0.01208643       1.11177563      -1.47317734       0.63740169      -0.19157457       0.28314485      -0.04252646      -0.27553149       0.38010055      -0.12965606
Ni       1.33536773       1.38598319       1.34498352      -1.11177563       1.47317734      -0.63740169       0.19157457      -0.28314485       0.04252646       0.27553149      -0.38010055       0.12965606
