2
Lattice="2.7145207710151933 2.7145207710151933 0.0 2.7145207710151933 0.0 2.7145207710151933 0.0 2.7145207710151933 2.7145207710151933" Properties=species:S:1:pos:R:3:momenta:R:3:last_op__md_forces:R:3:REF_forces:R:3 _ConfigSet_loc=" / 0" MD_pressure_GPa=0.0 MD_temperature_K=397.77777777777777 MD_time_fs=5.5 MD_step=5 MD_current_temperature=359.4628096170613 last_op__md_energy=-2.1609772446171975 last_op__md_stress="0.06251087444353544 0.06255362090852278 0.0626537778553899 0.0008365752236087158 0.0020092184360587413 0.0034708223934524205" config_type=MD vasp_rundir=md_step_20.step_010.VASP_runs/run_VASP_x4mgal0h REF_energy=-13.74532915 REF_stress="0.1939539187164252 0.1926845262015198 0.18732342547236852 0.0006110878084783997 0.002136308366733596 0.003902235732835879" REF_converged=T pbc="T T T"
Ni      -0.00553080      -0.01096583      -0.01813854      -0.59131778      -1.16939622      -1.93316664       0.05118808       0.12242540       0.21047399       0.06246835       0.13931359       0.23772907
Ni       1.36279119       1.36822621       1.37539892       0.59131778       1.16939622       1.93316664      -0.05118808      -0.12242540      -0.21047399      -0.06246835      -0.13931359      -0.23772907
2
Lattice="2.7140443386718336 2.7140443386718336 0.0 2.7140443386718336 0.0 2.7140443386718336 0.0 2.7140443386718336 2.7140443386718336" Properties=species:S:1:pos:R:3:momenta:R:3:last_op__md_forces:R:3:REF_forces:R:3 _ConfigSet_loc=" / 1" MD_pressure_GPa=0.0 MD_temperature_K=415.55555555555554 MD_time_fs=11.0 MD_step=10 MD_current_temperature=306.82634437436957 last_op__md_energy=-2.1474620411547787 last_op__md_stress="0.06172244009672289 0.061880904315107 0.06226024992251575 0.0013170320970415637 0.0036739532853763547 0.006623080602688149" config_type=MD vasp_rundir=md_step_20.step_010.VASP_runs/run_VASP_cy8gxy_z REF_energy=-13.7320327 REF_stress="0.1935906175969086 0.19046643595861915 0.18518987396149128 0.001060685194090182 0.004259851973493483 0.007606327948984138" REF_converged=T pbc="T T T"
Ni      -0.01083910      -0.02137455      -0.03531047      -0.55979193      -1.08283843      -1.78036418       0.07732712       0.22365095       0.39912122       0.10658816       0.27139540       0.47042258
Ni       1.36786127       1.37839672       1.39233264       0.55979193       1.08283843       1.78036418      -0.07732712      -0.22365095      -0.39912122      -0.10658816      -0.27139540      -0.47042258
