1
Lattice="7.0 0.0 0.0 0.0 7.1 0.0 0.0 0.0 7.2" Properties=species:S:1:pos:R:3:initial_magmoms:R:1:REF_magmoms:R:1 config_type=IsolatedAtom REF_energy=4.44 REF_converged pbc="T T T"
Ni       0.00000000       0.00000000       0.00000000       1.00000000       0.00000000
